2
# step 5
O -1.9385006865457188e-36 -0.6779143082524428 0.0
C 1.0 0.32111730390905174 0.0
2
# step 10
O -4.449117595459853e-36 -1.3518989080631618 0.0
C 1.0 0.6403731669772867 0.0
2
# step 15
O -6.932037865443541e-36 -2.018137030502603 0.0
C 1.0 0.9559596460275486 0.0
2
# step 20
O -9.3726825779989e-36 -2.6730304794429265 0.0
C 1.0 1.266172332367702 0.0
2
# step 25
O -1.1758795457412309e-35 -3.3132914937057145 0.0
C 1.0 1.5694538654395491 0.0
2
# step 30
O -1.4079553248372108e-35 -3.936015903992995 0.0
C 1.0 1.8644285861019452 0.0
2
# step 35
O -1.632575413963788e-35 -4.5387346067977825 0.0
C 1.0 2.1499269190094767 0.0
2
# step 40
O -1.848992535782858e-35 -5.119442447460655 0.0
C 1.0 2.4249990540603115 0.0
2
# step 45
O -2.0566350288975123e-35 -5.676605498113575 0.0
C 1.0 2.6889183938432737 0.0
2
# step 50
O -2.2551024356438173e-35 -6.20914921852073 0.0
C 1.0 2.941175945615084 0.0
2
# step 55
O -2.4441552643515675e-35 -6.716430985356148 0.0
C 1.0 3.1814673088529126 0.0
2
# step 60
O -2.6237004035655384e-35 -7.19820095446868 0.0
C 1.0 3.40967413632727 0.0
2
# step 65
O -2.7937736746681327e-35 -7.654555244674868 0.0
C 1.0 3.625841958003885 0.0
2
# step 70
O -2.954520889350949e-35 -8.085885109641982 0.0
C 1.0 3.830156104567255 0.0
2
# step 75
O -3.1061785755662746e-35 -8.492825220209724 0.0
C 1.0 4.022917209573028 0.0
2
# step 80
O -3.2490552927679544e-35 -8.87620352794057 0.0
C 1.0 4.204517460603428 0.0
2
# step 85
O -3.3835142087874266e-35 -9.236994513991183 0.0
C 1.0 4.375418453995825 0.0
2
# step 90
O -3.5099573806203763e-35 -9.576277010053927 0.0
C 1.0 4.536131215288705 0.0
2
# step 95
O -3.6288119839138547e-35 -9.895197248208298 0.0
C 1.0 4.687198696519723 0.0
2
# step 100
O -3.7405185771849555e-35 -10.194937370527883 0.0
C 1.0 4.829180859723738 0.0
2
# step 105
O -3.845521367108216e-35 -10.476689308115958 0.0
C 1.0 4.9626423038444045 0.0
2
# step 110
O -3.944260357246281e-35 -10.741633713947666 0.0
C 1.0 5.088142285554161 0.0
2
# step 115
O -4.0371652090974625e-35 -10.990923490338695 0.0
C 1.0 5.206226916476227 0.0
2
# step 120
O -4.124650615345344e-35 -11.225671374076212 0.0
C 1.0 5.317423282457156 0.0
2
# step 125
O -4.2071129749069936e-35 -11.446941014640615 0.0
C 1.0 5.422235217461346 0.0
2
# step 130
O -4.284928162577111e-35 -11.655740989535168 0.0
C 1.0 5.521140468727188 0.0
2
# step 135
O -4.3584501983616435e-35 -11.85302123373488 0.0
C 1.0 5.614589005453367 0.0
2
# step 140
O -4.428010639459394e-35 -12.039671408202583 0.0
C 1.0 5.703002245990702 0.0
2
# step 145
O -4.49391853857694e-35 -12.216520788036199 0.0
C 1.0 5.786773004859258 0.0
2
# step 150
O -4.556460833866408e-35 -12.384339308781144 0.0
C 1.0 5.86626598837002 0.0
2
# step 155
O -4.6159030568767285e-35 -12.543839466062112 0.0
C 1.0 5.941818694450477 0.0
2
# step 160
O -4.6724902646113695e-35 -12.695678816555432 0.0
C 1.0 6.013742597315734 0.0
2
# step 165
O -4.7264481195674606e-35 -12.840462876036955 0.0
C 1.0 6.082324520228035 0.0
2
# step 170
O -4.777984057248237e-35 -12.97874825214543 0.0
C 1.0 6.147828119437312 0.0
2
# step 175
O -4.827288494045458e-35 -13.111045885469817 0.0
C 1.0 6.210495419433077 0.0
2
# step 180
O -4.874536039664978e-35 -13.237824302827198 0.0
C 1.0 6.270548353970782 0.0
2
# step 185
O -4.919886687583155e-35 -13.359512811591198 0.0
C 1.0 6.328190279174785 0.0
2
# step 190
O -4.963486964584145e-35 -13.476504584222996 0.0
C 1.0 6.383607434631951 0.0
2
# step 195
O -5.005471026465551e-35 -13.5891595983569 0.0
C 1.0 6.4369703360638 0.0
2
# step 200
O -5.045961691738257e-35 -13.697807410506966 0.0
C 1.0 6.488435089187516 0.0
2
# step 205
O -5.085071408798197e-35 -13.80274975126013 0.0
C 1.0 6.538144619017964 0.0
2
# step 210
O -5.122903154806374e-35 -13.904262937223422 0.0
C 1.0 6.5862298123689955 0.0
2
# step 215
O -5.159551266548356e-35 -14.002600100453032 0.0
C 1.0 6.63281057389881 0.0
2
# step 220
O -5.195102205002055e-35 -14.097993240004127 0.0
C 1.0 6.677996797896698 0.0
2
# step 225
O -5.229635256345948e-35 -14.190655102932547 0.0
C 1.0 6.721889259283844 0.0
2
# step 230
O -5.263223172791413e-35 -14.280780903827665 0.0
C 1.0 6.764580428128902 0.0
2
# step 235
O -5.295932757005918e-35 -14.36854989298379 0.0
C 1.0 6.806155212466014 0.0
2
# step 240
O -5.327825394076033e-35 -14.454126783806071 0.0
C 1.0 6.846691634434465 0.0
2
# step 245
O -5.358957534993832e-35 -14.537663050140193 0.0
C 1.0 6.886261444803258 0.0
2
# step 250
O -5.389381135579811e-35 -14.619298104025622 0.0
C 1.0 6.924930680854252 0.0
2
# step 255
O -5.419144054612163e-35 -14.699160363988149 0.0
C 1.0 6.962760172415449 0.0
2
# step 260
O -5.448290414741544e-35 -14.777368223475449 0.0
C 1.0 6.999806000593645 0.0
2
# step 265
O -5.476860929551036e-35 -14.854030928450685 0.0
C 1.0 7.036119913476651 0.0
2
# step 270
O -5.504893199886907e-35 -14.929249372531041 0.0
C 1.0 7.071749702777872 0.0
2
# step 275
O -5.532421982347277e-35 -15.003116817418155 0.0
C 1.0 7.106739545092821 0.0
2
# step 280
O -5.559479432580209e-35 -15.07571954573512 0.0
C 1.0 7.141130311137699 0.0
2
# step 285
O -5.58609532581493e-35 -15.147137452773599 0.0
C 1.0 7.174959846050663 0.0
2
# step 290
O -5.612297256833292e-35 -15.21744458307335 0.0
C 1.0 7.208263223561071 0.0
2
# step 295
O -5.638110821385094e-35 -15.28670961721045 0.0
C 1.0 7.241072976573381 0.0
2
# step 300
O -5.663559780861646e-35 -15.354996313662603 0.0
C 1.0 7.27341930647177 0.0
2
# step 305
O -5.688666211867153e-35 -15.422363910151159 0.0
C 1.0 7.305330273229507 0.0
2
# step 310
O -5.713450642167262e-35 -15.48886748842918 0.0
C 1.0 7.336831968203309 0.0
2
# step 315
O -5.737932174347776e-35 -15.554558306092458 0.0
C 1.0 7.367948671306966 0.0
2
# step 320
O -5.762128598383467e-35 -15.61948409863322 0.0
C 1.0 7.398702994089434 0.0
2
# step 325
O -5.786056494196456e-35 -15.68368935463301 0.0
C 1.0 7.429116010089335 0.0
2
# step 330
O -5.809731325174595e-35 -15.747215566698761 0.0
C 1.0 7.459207373699428 0.0
2
# step 335
O -5.833167523522161e-35 -15.810101460482647 0.0
C 1.0 7.488995428649688 0.0
2
# step 340
O -5.856378568226717e-35 -15.872383203889006 0.0
C 1.0 7.518497307105331 0.0
2
# step 345
O -5.879377056346489e-35 -15.93409459835841 0.0
C 1.0 7.547729020275049 0.0
2
# step 350
O -5.902174768251345e-35 -15.99526725392749 0.0
C 1.0 7.576705541334086 0.0
2
# step 355
O -5.924782727386386e-35 -16.055930749591422 0.0
C 1.0 7.605440881385421 0.0
2
# step 360
O -5.94721125506982e-35 -16.116112780341968 0.0
C 1.0 7.633948159109363 0.0
2
# step 365
O -5.969470020785316e-35 -16.175839292116017 0.0
C 1.0 7.662239664686546 0.0
2
# step 370
O -5.991568088383069e-35 -16.23513460576596 0.0
C 1.0 7.690326918520732 0.0
2
# step 375
O -6.013513958562429e-35 -16.294021531052522 0.0
C 1.0 7.718220725235419 0.0
2
# step 380
O -6.035315607972068e-35 -16.352521471561445 0.0
C 1.0 7.745931223371223 0.0
2
# step 385
O -6.05698052523052e-35 -16.410654521356747 0.0
C 1.0 7.773467931168996 0.0
2
# step 390
O -6.078515744140266e-35 -16.468439554103384 0.0
C 1.0 7.800839788785828 0.0
2
# step 395
O -6.099927874341963e-35 -16.52589430532119 0.0
C 1.0 7.828055197257421 0.0
2
# step 400
O -6.121223129631558e-35 -16.583035448367593 0.0
C 1.0 7.855122054489925 0.0
2
# step 405
O -6.142407354141662e-35 -16.639878664689608 0.0
C 1.0 7.882047788537195 0.0
2
# step 410
O -6.163486046569391e-35 -16.696438708833924 0.0
C 1.0 7.908839388395031 0.0
2
# step 415
O -6.184464382615635e-35 -16.75272946865775 0.0
C 1.0 7.935503432522108 0.0
2
# step 420
O -6.205347235785228e-35 -16.80876402114155 0.0
C 1.0 7.962046115277589 0.0
2
# step 425
O -6.226139196683683e-35 -16.864554684167523 0.0
C 1.0 7.988473271447787 0.0
2
# step 430
O -6.246844590933517e-35 -16.920113064594176 0.0
C 1.0 8.014790399018304 0.0
2
# step 435
O -6.267467495822022e-35 -16.975450102926946 0.0
C 1.0 8.041002680333824 0.0
2
# step 440
O -6.288011755782197e-35 -17.030576114857897 0.0
C 1.0 8.067115001774797 0.0
2
# step 445
O -6.308480996799383e-35 -17.085500829922744 0.0
C 1.0 8.093131972068674 0.0
2
# step 450
O -6.328878639827955e-35 -17.140233427501627 0.0
C 1.0 8.119057939342886 0.0
2
# step 455
O -6.349207913294926e-35 -17.194782570369764 0.0
C 1.0 8.144897007017269 0.0
2
# step 460
O -6.369471864760676e-35 -17.249156435986464 0.0
C 1.0 8.17065304862518 0.0
2
# step 465
O -6.389673371800878e-35 -17.30336274569439 0.0
C 1.0 8.196329721644723 0.0
2
# step 470
O -6.409815152168251e-35 -17.35740879198638 0.0
C 1.0 8.221930480414615 0.0
2
# step 475
O -6.42989977328776e-35 -17.41130146398376 0.0
C 1.0 8.247458588202848 0.0
2
# step 480
O -6.449929661134417e-35 -17.465047271257948 0.0
C 1.0 8.27291712849062 0.0
2
# step 485
O -6.469907108538699e-35 -17.518652366116225 0.0
C 1.0 8.298309015528755 0.0
2
# step 490
O -6.489834282960939e-35 -17.57212256446262 0.0
C 1.0 8.323637004219153 0.0
2
# step 495
O -6.509713233772637e-35 -17.625463365335694 0.0
C 1.0 8.348903699369554 0.0
2
# step 500
O -6.529545899079596e-35 -17.67867996921694 0.0
C 1.0 8.37411156436593 0.0
2
# step 505
O -6.549334112118994e-35 -17.731777295195908 0.0
C 1.0 8.399262929303333 0.0
2
# step 510
O -6.569079607259973e-35 -17.784759997071475 0.0
C 1.0 8.424359998612815 0.0
2
# step 515
O -6.588784025634972e-35 -17.8376324784623 0.0
C 1.0 8.449404858218994 0.0
2
# step 520
O -6.608448920426982e-35 -17.890398906994 0.0
C 1.0 8.47439948226032 0.0
2
# step 525
O -6.628075761835909e-35 -17.943063227625295 0.0
C 1.0 8.499345739401459 0.0
2
# step 530
O -6.647665941745524e-35 -17.995629175170755 0.0
C 1.0 8.524245398765098 0.0
2
# step 535
O -6.667220778110813e-35 -18.048100286073275 0.0
C 1.0 8.549100135508398 0.0
2
# step 540
O -6.686741519084116e-35 -18.100479909475688 0.0
C 1.0 8.573911536067438 0.0
2
# step 545
O -6.706229346897046e-35 -18.15277121763701 0.0
C 1.0 8.598681103091222 0.0
2
# step 550
O -6.725685381513962e-35 -18.204977215735745 0.0
C 1.0 8.623410260085361 0.0
2
# step 555
O -6.745110684071637e-35 -18.257100751099514 0.0
C 1.0 8.64810035578399 0.0
2
# step 560
O -6.764506260118707e-35 -18.30914452189734 0.0
C 1.0 8.67275266826717 0.0
2
# step 565
O -6.783873062667499e-35 -18.361111085328613 0.0
C 1.0 8.69736840883988 0.0
2
# step 570
O -6.80321199507001e-35 -18.413002865340125 0.0
C 1.0 8.72194872568744 0.0
2
# step 575
O -6.822523913728936e-35 -18.464822159900514 0.0
C 1.0 8.746494707321308 0.0
2
# step 580
O -6.841809630653928e-35 -18.51657114785943 0.0
C 1.0 8.771007385828167 0.0
2
# step 585
O -6.861069915872557e-35 -18.568251895416836 0.0
C 1.0 8.795487739934307 0.0
2
# step 590
O -6.880305499704811e-35 -18.619866362226105 0.0
C 1.0 8.819936697896596 0.0
2
# step 595
O -6.899517074909393e-35 -18.67141640715316 0.0
C 1.0 8.844355140230464 0.0
2
# step 600
O -6.918705298709496e-35 -18.722903793712153 0.0
C 1.0 8.868743902284729 0.0
2
# step 605
O -6.937870794705243e-35 -18.774330195197145 0.0
C 1.0 8.893103776672357 0.0
2
# step 610
O -6.957014154679538e-35 -18.82569719952765 0.0
C 1.0 8.917435515565753 0.0
2
# step 615
O -6.976135940303596e-35 -18.877006313825078 0.0
C 1.0 8.941739832864535 0.0
2
# step 620
O -6.995236684748038e-35 -18.928258968735765 0.0
C 1.0 8.96601740624328 0.0
2
# step 625
O -7.014316894205058e-35 -18.97945652251535 0.0
C 1.0 8.990268879086239 0.0
2
# step 630
O -7.03337704932684e-35 -19.030600264888445 0.0
C 1.0 9.014494862315601 0.0
2
# step 635
O -7.052417606585026e-35 -19.0816914206965 0.0
C 1.0 9.038695936119417 0.0
2
# step 640
O -7.071438999555811e-35 -19.13273115334608 0.0
C 1.0 9.062872651585005 0.0
2
# step 645
O -7.09044164013489e-35 -19.183720568068853 0.0
C 1.0 9.087025532243159 0.0
2
# step 650
O -7.109425919686275e-35 -19.234660715004246 0.0
C 1.0 9.111155075528341 0.0
2
# step 655
O -7.128392210128706e-35 -19.285552592114545 0.0
C 1.0 9.135261754159535 0.0
2
# step 660
O -7.147340864963202e-35 -19.336397147942147 0.0
C 1.0 9.15934601744629 0.0
2
# step 665
O -7.166272220245058e-35 -19.387195284217665 0.0
C 1.0 9.183408292524167 0.0
2
# step 670
O -7.185186595503392e-35 -19.43794785832734 0.0
C 1.0 9.20744898552349 0.0
2
# step 675
O -7.204084294611182e-35 -19.488655685647622 0.0
C 1.0 9.2314684826752 0.0
2
# step 680
O -7.22296560660854e-35 -19.539319541754192 0.0
C 1.0 9.255467151357257 0.0
2
# step 685
O -7.241830806481819e-35 -19.589940164512573 0.0
C 1.0 9.27944534108491 0.0
2
# step 690
O -7.260680155901005e-35 -19.64051825605672 0.0
C 1.0 9.303403384447932 0.0
2
# step 695
O -7.279513903917665e-35 -19.69105448466186 0.0
C 1.0 9.327341597997735 0.0
2
# step 700
O -7.298332287625654e-35 -19.741549486517307 0.0
C 1.0 9.351260283087157 0.0
2
# step 705
O -7.317135532786596e-35 -19.79200386740481 0.0
C 1.0 9.37515972666545 0.0
2
# step 710
O -7.33592385442207e-35 -19.84241820428759 0.0
C 1.0 9.399040202030974 0.0
2
# step 715
O -7.354697457374329e-35 -19.892793046814855 0.0
C 1.0 9.422901969543894 0.0
2
# step 720
O -7.373456536837242e-35 -19.943128918746517 0.0
C 1.0 9.446745277301 0.0
2
# step 725
O -7.392201278859095e-35 -19.993426319302305 0.0
C 1.0 9.470570361774794 0.0
2
# step 730
O -7.410931860818753e-35 -20.043685724439477 0.0
C 1.0 9.494377448418717 0.0
2
# step 735
O -7.429648451876648e-35 -20.093907588062912 0.0
C 1.0 9.518166752240344 0.0
2
# step 740
O -7.448351213401928e-35 -20.144092343171284 0.0
C 1.0 9.541938478344312 0.0
2
# step 745
O -7.467040299377052e-35 -20.194240402942736 0.0
C 1.0 9.565692822446579 0.0
2
# step 750
O -7.485715856781064e-35 -20.24435216176327 0.0
C 1.0 9.58942997136157 0.0
2
# step 755
O -7.50437802595266e-35 -20.294427996200977 0.0
C 1.0 9.613150103463637 0.0
2
# step 760
O -7.523026940934144e-35 -20.344468265928946 0.0
C 1.0 9.636853389124251 0.0
2
# step 765
O -7.541662729797304e-35 -20.3944733145997 0.0
C 1.0 9.660539991126187 0.0
2
# step 770
O -7.560285514952141e-35 -20.444443470673612 0.0
C 1.0 9.684210065055936 0.0
2
# step 775
O -7.578895413439405e-35 -20.494379048203847 0.0
C 1.0 9.707863759675522 0.0
2
# step 780
O -7.597492537207773e-35 -20.544280347580106 0.0
C 1.0 9.731501217274804 0.0
2
# step 785
O -7.616076993376487e-35 -20.594147656233353 0.0
C 1.0 9.75512257400529 0.0
2
# step 790
O -7.634648884484231e-35 -20.64398124930365 0.0
C 1.0 9.778727960196484 0.0
2
# step 795
O -7.653208308724985e-35 -20.693781390272978 0.0
C 1.0 9.802317500655642 0.0
2
# step 800
O -7.671755360171514e-35 -20.743548331564966 0.0
C 1.0 9.825891314951845 0.0
2
# step 805
O -7.690290128987183e-35 -20.793282315113196 0.0
C 1.0 9.849449517685217 0.0
2
# step 810
O -7.708812701626691e-35 -20.842983572899882 0.0
C 1.0 9.872992218742072 0.0
2
# step 815
O -7.727323161026321e-35 -20.89265232746633 0.0
C 1.0 9.896519523536707 0.0
2
# step 820
O -7.745821586784243e-35 -20.94228879239677 0.0
C 1.0 9.920031533240596 0.0
2
# step 825
O -7.764308055331422e-35 -20.9918931727769 0.0
C 1.0 9.94352834499961 0.0
2
# step 830
O -7.782782640093597e-35 -21.04146566562858 0.0
C 1.0 9.967010052139882 0.0
2
# step 835
O -7.801245411644811e-35 -21.091006460321772 0.0
C 1.0 9.990476744362972 0.0
2
# step 840
O -7.819696437852949e-35 -21.140515738965043 0.0
C 1.0 10.013928507930835 0.0
2
# step 845
O -7.838135784017684e-35 -21.189993676775728 0.0
C 1.0 10.037365425841157 0.0
2
# step 850
O -7.856563513001238e-35 -21.239440442430798 0.0
C 1.0 10.060787577993558 0.0
2
# step 855
O -7.874979685352335e-35 -21.288856198399465 0.0
C 1.0 10.084195041347137 0.0
2
# step 860
O -7.893384359423706e-35 -21.338241101258475 0.0
C 1.0 10.107587890069826 0.0
2
# step 865
O -7.91177759148348e-35 -21.38759530199101 0.0
C 1.0 10.130966195679974 0.0
2
# step 870
O -7.93015943582078e-35 -21.436918946270005 0.0
C 1.0 10.154330027180551 0.0
2
# step 875
O -7.948529944845835e-35 -21.4862121747268 0.0
C 1.0 10.1776794511864 0.0
2
# step 880
O -7.966889169184869e-35 -21.535475123205767 0.0
C 1.0 10.201014532044857 0.0
2
# step 885
O -7.985237157770093e-35 -21.584707923005734 0.0
C 1.0 10.224335331950105 0.0
2
# step 890
O -8.003573957924986e-35 -21.633910701108892 0.0
C 1.0 10.247641911051602 0.0
2
# step 895
O -8.021899615445186e-35 -21.68308358039777 0.0
C 1.0 10.270934327556859 0.0
2
# step 900
O -8.04021417467515e-35 -21.732226679860986 0.0
C 1.0 10.294212637828908 0.0
2
# step 905
O -8.058517678580855e-35 -21.781340114788307 0.0
C 1.0 10.317476896478691 0.0
2
# step 910
O -8.07681016881872e-35 -21.83042399695559 0.0
C 1.0 10.340727156452669 0.0
2
# step 915
O -8.095091685800954e-35 -21.879478434800134 0.0
C 1.0 10.363963469115872 0.0
2
# step 920
O -8.113362268757524e-35 -21.92850353358693 0.0
C 1.0 10.387185884330671 0.0
2
# step 925
O -8.131621955794903e-35 -21.97749939556634 0.0
C 1.0 10.410394450531443 0.0
2
# step 930
O -8.149870783951772e-35 -22.026466120123537 0.0
C 1.0 10.43358921479538 0.0
2
# step 935
O -8.168108789251851e-35 -22.075403803920263 0.0
C 1.0 10.456770222909617 0.0
2
# step 940
O -8.186336006753976e-35 -22.124312541029212 0.0
C 1.0 10.47993751943491 0.0
2
# step 945
O -8.2045524705996e-35 -22.173192423061476 0.0
C 1.0 10.50309114776598 0.0
2
# step 950
O -8.222758214057825e-35 -22.22204353928739 0.0
C 1.0 10.526231150188782 0.0
2
# step 955
O -8.240953269568111e-35 -22.27086597675112 0.0
C 1.0 10.54935756793476 0.0
2
# step 960
O -8.259137668780767e-35 -22.319659820379332 0.0
C 1.0 10.57247044123233 0.0
2
# step 965
O -8.277311442595368e-35 -22.36842515308424 0.0
C 1.0 10.595569809355707 0.0
2
# step 970
O -8.29547462119716e-35 -22.417162055861326 0.0
C 1.0 10.618655710671172 0.0
2
# step 975
O -8.313627234091608e-35 -22.46587060788203 0.0
C 1.0 10.641728182680982 0.0
2
# step 980
O -8.331769310137143e-35 -22.514550886581628 0.0
C 1.0 10.664787262065001 0.0
2
# step 985
O -8.349900877576228e-35 -22.563202967742562 0.0
C 1.0 10.687832984720183 0.0
2
# step 990
O -8.36802196406482e-35 -22.611826925573517 0.0
C 1.0 10.710865385798005 0.0
2
# step 995
O -8.386132596700303e-35 -22.660422832784388 0.0
C 1.0 10.733884499739997 0.0
2
# step 1000
O -8.404232802047993e-35 -22.70899076065736 0.0
C 1.0 10.756890360311404 0.0
2
# step 1005
O -8.42232260616627e-35 -22.757530779114376 0.0
C 1.0 10.779883000633147 0.0
2
# step 1010
O -8.440402034630411e-35 -22.806042956781084 0.0
C 1.0 10.802862453212114 0.0
2
# step 1015
O -8.458471112555206e-35 -22.854527361047495 0.0
C 1.0 10.82582874996989 0.0
2
# step 1020
O -8.476529864616401e-35 -22.902984058125575 0.0
C 1.0 10.848781922270032 0.0
2
# step 1025
O -8.494578315071038e-35 -22.951413113103754 0.0
C 1.0 10.871722000943908 0.0
2
# step 1030
O -8.51261648777675e-35 -22.999814589998774 0.0
C 1.0 10.894649016315233 0.0
2
# step 1035
O -8.530644406210077e-35 -23.048188551804756 0.0
C 1.0 10.917562998223332 0.0
2
# step 1040
O -8.548662093483812e-35 -23.09653506053982 0.0
C 1.0 10.940463976045203 0.0
2
# step 1045
O -8.566669572363483e-35 -23.144854177290256 0.0
C 1.0 10.963351978716458 0.0
2
# step 1050
O -8.584666865282971e-35 -23.19314596225246 0.0
C 1.0 10.986227034751186 0.0
2
# step 1055
O -8.602653994359347e-35 -23.241410474772724 0.0
C 1.0 11.009089172260792 0.0
2
# step 1060
O -8.620630981406918e-35 -23.28964777338498 0.0
C 1.0 11.031938418971867 0.0
2
# step 1065
O -8.638597847950589e-35 -23.337857915846573 0.0
C 1.0 11.054774802243148 0.0
2
# step 1070
O -8.65655461523851e-35 -23.386040959172256 0.0
C 1.0 11.07759834908163 0.0
2
# step 1075
O -8.674501304254098e-35 -23.4341969596664 0.0
C 1.0 11.100409086157809 0.0
2
# step 1080
O -8.692437935727423e-35 -23.48232597295363 0.0
C 1.0 11.123207039820185 0.0
2
# step 1085
O -8.710364530146037e-35 -23.530428054007768 0.0
C 1.0 11.145992236108992 0.0
2
# step 1090
O -8.728281107765229e-35 -23.57850325717945 0.0
C 1.0 11.168764700769266 0.0
2
# step 1095
O -8.746187688617767e-35 -23.626551636222214 0.0
C 1.0 11.191524459263205 0.0
2
# step 1100
O -8.764084292523145e-35 -23.674573244317312 0.0
C 1.0 11.214271536781938 0.0
2
# step 1105
O -8.781970939096347e-35 -23.72256813409726 0.0
C 1.0 11.237005958256653 0.0
2
# step 1110
O -8.79984764775619e-35 -23.770536357668163 0.0
C 1.0 11.259727748369189 0.0
2
# step 1115
O -8.817714437733202e-35 -23.818477966630955 0.0
C 1.0 11.28243693156209 0.0
2
# step 1120
O -8.83557132807715e-35 -23.866393012101476 0.0
C 1.0 11.305133532048133 0.0
2
# step 1125
O -8.853418337664144e-35 -23.914281544729644 0.0
C 1.0 11.32781757381937 0.0
2
# step 1130
O -8.871255485203403e-35 -23.96214361471753 0.0
C 1.0 11.35048908065574 0.0
2
# step 1135
O -8.889082789243676e-35 -24.009979271836634 0.0
C 1.0 11.373148076133214 0.0
2
# step 1140
O -8.906900268179334e-35 -24.057788565444216 0.0
C 1.0 11.395794583631542 0.0
2
# step 1145
O -8.924707940256155e-35 -24.10557154449881 0.0
C 1.0 11.418428626341614 0.0
2
# step 1150
O -8.942505823576822e-35 -24.153328257574998 0.0
C 1.0 11.441050227272438 0.0
2
# step 1155
O -8.960293936106135e-35 -24.201058752877373 0.0
C 1.0 11.463659409257774 0.0
2
# step 1160
O -8.978072295675974e-35 -24.24876307825388 0.0
C 1.0 11.486256194962436 0.0
2
# step 1165
O -8.995840919990005e-35 -24.29644128120841 0.0
C 1.0 11.508840606888267 0.0
2
# step 1170
O -9.013599826628147e-35 -24.344093408912816 0.0
C 1.0 11.531412667379827 0.0
2
# step 1175
O -9.031349033050825e-35 -24.391719508218316 0.0
C 1.0 11.553972398629803 0.0
2
# step 1180
O -9.049088556602999e-35 -24.43931962566631 0.0
C 1.0 11.57651982268412 0.0
2
# step 1185
O -9.066818414518006e-35 -24.486893807498674 0.0
C 1.0 11.599054961446818 0.0
2
# step 1190
O -9.084538623921197e-35 -24.53444209966752 0.0
C 1.0 11.621577836684695 0.0
2
# step 1195
O -9.102249201833408e-35 -24.581964547844525 0.0
C 1.0 11.644088470031699 0.0
2
# step 1200
O -9.11995016517424e-35 -24.62946119742974 0.0
C 1.0 11.666586882993117 0.0
2
# step 1205
O -9.137641530765199e-35 -24.676932093559973 0.0
C 1.0 11.689073096949542 0.0
2
# step 1210
O -9.155323315332666e-35 -24.724377281116794 0.0
C 1.0 11.71154713316067 0.0
2
# step 1215
O -9.172995535510721e-35 -24.771796804734105 0.0
C 1.0 11.73400901276887 0.0
2
# step 1220
O -9.19065820784384e-35 -24.819190708805383 0.0
C 1.0 11.75645875680263 0.0
2
# step 1225
O -9.208311348789444e-35 -24.866559037490504 0.0
C 1.0 11.778896386179794 0.0
2
# step 1230
O -9.225954974720345e-35 -24.913901834722303 0.0
C 1.0 11.801321921710645 0.0
2
# step 1235
O -9.243589101927044e-35 -24.96121914421278 0.0
C 1.0 11.82373538410087 0.0
2
# step 1240
O -9.261213746619948e-35 -25.008511009458992 0.0
C 1.0 11.846136793954335 0.0
2
# step 1245
O -9.27882892493146e-35 -25.05577747374871 0.0
C 1.0 11.868526171775779 0.0
2
# step 1250
O -9.296434652917972e-35 -25.103018580165724 0.0
C 1.0 11.890903537973314 0.0
2
# step 1255
O -9.314030946561768e-35 -25.150234371595 0.0
C 1.0 11.913268912860865 0.0
2
# step 1260
O -9.331617821772831e-35 -25.197424890727472 0.0
C 1.0 11.935622316660458 0.0
2
# step 1265
O -9.349195294390563e-35 -25.2445901800647 0.0
C 1.0 11.957963769504408 0.0
2
# step 1270
O -9.36676338018543e-35 -25.29173028192328 0.0
C 1.0 11.98029329143742 0.0
2
# step 1275
O -9.38432209486052e-35 -25.33884523843899 0.0
C 1.0 12.00261090241855 0.0
2
# step 1280
O -9.401871454053039e-35 -25.385935091570843 0.0
C 1.0 12.024916622323115 0.0
2
# step 1285
O -9.419411473335723e-35 -25.432999883104863 0.0
C 1.0 12.047210470944492 0.0
2
# step 1290
O -9.436942168218198e-35 -25.480039654657716 0.0
C 1.0 12.069492467995849 0.0
2
# step 1295
O -9.454463554148265e-35 -25.527054447680193 0.0
C 1.0 12.091762633111761 0.0
2
# step 1300
O -9.471975646513139e-35 -25.5740443034605 0.0
C 1.0 12.114020985849805 0.0
2
# step 1305
O -9.489478460640611e-35 -25.621009263127416 0.0
C 1.0 12.136267545692023 0.0
2
# step 1310
O -9.506972011800184e-35 -25.667949367653282 0.0
C 1.0 12.15850233204638 0.0
2
# step 1315
O -9.524456315204131e-35 -25.714864657856907 0.0
C 1.0 12.180725364248094 0.0
2
# step 1320
O -9.541931386008526e-35 -25.761755174406282 0.0
C 1.0 12.202936661560955 0.0
2
# step 1325
O -9.559397239314213e-35 -25.8086209578212 0.0
C 1.0 12.22513624317855 0.0
2
# step 1330
O -9.576853890167745e-35 -25.85546204847579 0.0
C 1.0 12.247324128225463 0.0
2
# step 1335
O -9.594301353562268e-35 -25.902278486600874 0.0
C 1.0 12.2695003357584 0.0
2
# step 1340
O -9.611739644438382e-35 -25.949070312286267 0.0
C 1.0 12.29166488476727 0.0
2
# step 1345
O -9.629168777684948e-35 -25.995837565482965 0.0
C 1.0 12.313817794176236 0.0
2
# step 1350
O -9.64658876813988e-35 -26.04258028600524 0.0
C 1.0 12.335959082844683 0.0
2
# step 1355
O -9.663999630590872e-35 -26.08929851353263 0.0
C 1.0 12.358088769568187 0.0
2
# step 1360
O -9.681401379776133e-35 -26.13599228761189 0.0
C 1.0 12.380206873079416 0.0
2
# step 1365
O -9.698794030385059e-35 -26.182661647658794 0.0
C 1.0 12.402313412049 0.0
2
# step 1370
O -9.716177597058901e-35 -26.229306632959894 0.0
C 1.0 12.424408405086368 0.0
2
# step 1375
O -9.733552094391373e-35 -26.275927282674253 0.0
C 1.0 12.446491870740536 0.0
2
# step 1380
O -9.750917536929281e-35 -26.322523635835015 0.0
C 1.0 12.468563827500898 0.0
2
# step 1385
O -9.768273939173083e-35 -26.369095731350992 0.0
C 1.0 12.490624293797936 0.0
2
# step 1390
O -9.78562131557746e-35 -26.41564360800812 0.0
C 1.0 12.51267328800394 0.0
2
# step 1395
O -9.802959680551824e-35 -26.462167304470917 0.0
C 1.0 12.534710828433685 0.0
2
# step 1400
O -9.820289048460862e-35 -26.508666859283856 0.0
C 1.0 12.556736933345077 0.0
2
# step 1405
O -9.83760943362501e-35 -26.555142310872682 0.0
C 1.0 12.578751620939787 0.0
2
# step 1410
O -9.85492085032093e-35 -26.60159369754569 0.0
C 1.0 12.600754909363845 0.0
2
# step 1415
O -9.872223312781968e-35 -26.64802105749493 0.0
C 1.0 12.622746816708222 0.0
2
# step 1420
O -9.889516835198588e-35 -26.69442442879741 0.0
C 1.0 12.644727361009398 0.0
2
# step 1425
O -9.9068014317188e-35 -26.740803849416213 0.0
C 1.0 12.666696560249882 0.0
2
# step 1430
O -9.924077116448575e-35 -26.78715935720159 0.0
C 1.0 12.688654432358742 0.0
2
# step 1435
O -9.941343903452212e-35 -26.833490989892013 0.0
C 1.0 12.710600995212102 0.0
2
# step 1440
O -9.958601806752739e-35 -26.879798785115216 0.0
C 1.0 12.73253626663362 0.0
2
# step 1445
O -9.975850840332286e-35 -26.926082780389162 0.0
C 1.0 12.75446026439496 0.0
2
# step 1450
O -9.99309101813241e-35 -26.97234301312295 0.0
C 1.0 12.776373006216229 0.0
2
# step 1455
O -1.0010322354054455e-34 -27.018579520617795 0.0
C 1.0 12.798274509766419 0.0
2
# step 1460
O -1.002754486195988e-34 -27.064792340067875 0.0
C 1.0 12.820164792663826 0.0
2
# step 1465
O -1.004475855567057e-34 -27.110981508561203 0.0
C 1.0 12.842043872476456 0.0
2
# step 1470
O -1.0061963448969165e-34 -27.157147063080448 0.0
C 1.0 12.863911766722413 0.0
2
# step 1475
O -1.0079159555599333e-34 -27.203289040503734 0.0
C 1.0 12.885768492870286 0.0
2
# step 1480
O -1.009634688926608e-34 -27.24940747760543 0.0
C 1.0 12.907614068339507 0.0
2
# step 1485
O -1.0113525463636018e-34 -27.295502411056894 0.0
C 1.0 12.929448510500727 0.0
2
# step 1490
O -1.0130695292337642e-34 -27.34157387742721 0.0
C 1.0 12.951271836676142 0.0
2
# step 1495
O -1.0147856388961603e-34 -27.38762191318389 0.0
C 1.0 12.973084064139831 0.0
2
# step 1500
O -1.0165008767060955e-34 -27.43364655469359 0.0
C 1.0 12.99488521011811 0.0
2
# step 1505
O -1.018215244015141e-34 -27.47964783822274 0.0
C 1.0 13.016675291789811 0.0
2
# step 1510
O -1.019928742171157e-34 -27.525625799938233 0.0
C 1.0 13.038454326286622 0.0
2
# step 1515
O -1.0216413725183183e-34 -27.571580475908036 0.0
C 1.0 13.060222330693373 0.0
2
# step 1520
O -1.0233531363971358e-34 -27.61751190210182 0.0
C 1.0 13.081979322048323 0.0
2
# step 1525
O -1.02506403514448e-34 -27.663420114391553 0.0
C 1.0 13.103725317343462 0.0
2
# step 1530
O -1.026774070093601e-34 -27.7093051485521 0.0
C 1.0 13.12546033352478 0.0
2
# step 1535
O -1.0284832425741524e-34 -27.755167040261785 0.0
C 1.0 13.147184387492523 0.0
2
# step 1540
O -1.0301915539122107e-34 -27.80100582510296 0.0
C 1.0 13.168897496101497 0.0
2
# step 1545
O -1.0318990054302947e-34 -27.84682153856252 0.0
C 1.0 13.190599676161291 0.0
2
# step 1550
O -1.0336055984473876e-34 -27.892614216032477 0.0
C 1.0 13.212290944436537 0.0
2
# step 1555
O -1.035311334278955e-34 -27.938383892810467 0.0
C 1.0 13.233971317647164 0.0
2
# step 1560
O -1.0370162142369637e-34 -27.98413060410024 0.0
C 1.0 13.255640812468634 0.0
2
# step 1565
O -1.038720239629901e-34 -28.02985438501218 0.0
C 1.0 13.277299445532185 0.0
2
# step 1570
O -1.0404234117627926e-34 -28.075555270563783 0.0
C 1.0 13.29894723342505 0.0
2
# step 1575
O -1.0421257319372203e-34 -28.121233295680145 0.0
C 1.0 13.320584192690696 0.0
2
# step 1580
O -1.04382720145134e-34 -28.16688849519442 0.0
C 1.0 13.342210339829037 0.0
2
# step 1585
O -1.0455278215998976e-34 -28.21252090384829 0.0
C 1.0 13.363825691296661 0.0
2
# step 1590
O -1.0472275936742476e-34 -28.2581305562924 0.0
C 1.0 13.385430263507029 0.0
2
# step 1595
O -1.0489265189623683e-34 -28.30371748708682 0.0
C 1.0 13.407024072830705 0.0
2
# step 1600
O -1.0506245987488778e-34 -28.349281730701474 0.0
C 1.0 13.428607135595541 0.0
2
# step 1605
O -1.052321834315051e-34 -28.394823321516558 0.0
C 1.0 13.450179468086898 0.0
2
# step 1610
O -1.054018226938835e-34 -28.44034229382296 0.0
C 1.0 13.471741086547828 0.0
2
# step 1615
O -1.0557137778948638e-34 -28.485838681822703 0.0
C 1.0 13.493292007179285 0.0
2
# step 1620
O -1.0574084884544735e-34 -28.531312519629303 0.0
C 1.0 13.514832246140303 0.0
2
# step 1625
O -1.0591023598857186e-34 -28.57676384126821 0.0
C 1.0 13.536361819548203 0.0
2
# step 1630
O -1.0607953934533852e-34 -28.622192680677177 0.0
C 1.0 13.557880743478767 0.0
2
# step 1635
O -1.0624875904190059e-34 -28.66759907170666 0.0
C 1.0 13.57938903396642 0.0
2
# step 1640
O -1.0641789520408739e-34 -28.71298304812021 0.0
C 1.0 13.600886707004415 0.0
2
# step 1645
O -1.0658694795740571e-34 -28.758344643594818 0.0
C 1.0 13.622373778545022 0.0
2
# step 1650
O -1.067559174270413e-34 -28.803683891721324 0.0
C 1.0 13.643850264499681 0.0
2
# step 1655
O -1.0692480373786009e-34 -28.84900082600475 0.0
C 1.0 13.665316180739204 0.0
2
# step 1660
O -1.0709360701440958e-34 -28.894295479864706 0.0
C 1.0 13.68677154309392 0.0
2
# step 1665