2
# step 0
O 103767.40379381718 2187.1076681369623 0.0
C -49151.9807444397 -1035.9983691175084 0.0
2
# step 1
O 219064.12284914957 4617.234839082793 0.0
C -103766.2160864393 -2187.1112395655337 0.0
2
# step 1
O 334360.84190448193 7047.362010028627 0.0
C -158380.45142843883 -3338.224110013557 0.0
2
# step 2
O 449657.5609598143 9477.48918097446 0.0
C -212994.68677043827 -4489.33698046158 0.0
2
# step 2
O 564954.2800151468 11907.616351920295 0.0
C -267608.9221124377 -5640.449850909604 0.0
2
# step 3
O 680250.9990704798 14337.743522866129 0.0
C -322223.15745443717 -6791.562721357627 0.0
2
# step 3
O 795547.7181258127 16767.87069381196 0.0
C -376837.3927964366 -7942.675591805651 0.0
2
# step 4
O 910844.4371811457 19197.997864757777 0.0
C -431451.62813843606 -9093.78846225368 0.0
2
# step 4
O 1026141.1562364786 21628.125035703593 0.0
C -486065.8634804355 -10244.901332701713 0.0
2
# step 5
O 1141437.8752918106 24058.25220664941 0.0
C -540680.098822435 -11396.014203149745 0.0
2
# step 5
O 1256734.5943471424 26488.379377595225 0.0
C -595294.3341644345 -12547.127073597778 0.0
2
# step 6
O 1372031.3134024742 28918.50654854104 0.0
C -649908.5695064339 -13698.23994404581 0.0
2
# step 6
O 1487328.032457806 31348.633719486857 0.0
C -704522.8048484334 -14849.352814493843 0.0
2
# step 7
O 1602624.7515131377 33778.76089043269 0.0
C -759137.0401904328 -16000.465684941875 0.0
2
# step 7
O 1717921.4705684695 36208.888061378544 0.0
C -813751.2755324322 -17151.578555389897 0.0
2
# step 8
O 1833218.1896238013 38639.0152323244 0.0
C -868365.5108744317 -18302.69142583791 0.0
2
# step 8
O 1948514.908679133 41069.14240327025 0.0
C -922979.7462164311 -19453.804296285925 0.0
2
# step 9
O 2063811.6277344648 43499.2695742161 0.0
C -977593.9815584306 -20604.91716673394 0.0
2
# step 9
O 2179108.3467897982 45929.396745161954 0.0
C -1032208.21690043 -21756.030037181954 0.0
2
# step 10
O 2294405.0658451323 48359.523916107806 0.0
C -1086822.4522424303 -22907.14290762997 0.0
2
# step 10
O 2409701.7849004664 50789.65108705366 0.0
C -1141436.687584431 -24058.255778077983 0.0
2
# step 11
O 2524998.5039558006 53219.77825799951 0.0
C -1196050.9229264315 -25209.368648525997 0.0
2
# step 11
O 2640295.2230111347 55649.90542894536 0.0
C -1250665.1582684321 -26360.48151897401 0.0
2
# step 12
O 2755591.9420664688 58080.032599891216 0.0
C -1305279.3936104327 -27511.594389422025 0.0
2
# step 12
O 2870888.661121803 60510.15977083707 0.0
C -1359893.6289524334 -28662.70725987004 0.0
2
# step 13
O 2986185.380177137 62940.28694178292 0.0
C -1414507.864294434 -29813.820130318054 0.0
2
# step 13
O 3101482.099232471 65370.41411272877 0.0
C -1469122.0996364346 -30964.93300076607 0.0
2
# step 14
O 3216778.818287805 67800.54128367455 0.0
C -1523736.3349784352 -32116.045871214083 0.0
2
# step 14
O 3332075.5373431393 70230.66845462033 0.0
C -1578350.5703204358 -33267.15874166211 0.0
2
# step 15
O 3447372.2563984734 72660.79562556611 0.0
C -1632964.8056624364 -34418.27161211016 0.0
2
# step 15
O 3562668.9754538075 75090.92279651189 0.0
C -1687579.041004437 -35569.38448255821 0.0
2
# step 16
O 3677965.6945091416 77521.04996745767 0.0
C -1742193.2763464376 -36720.49735300626 0.0
2
# step 16
O 3793262.4135644757 79951.17713840345 0.0
C -1796807.5116884382 -37871.610223454314 0.0
2
# step 17
O 3908559.13261981 82381.30430934923 0.0
C -1851421.7470304389 -39022.723093902365 0.0
2
# step 17
O 4023855.851675144 84811.43148029501 0.0
C -1906035.9823724395 -40173.835964350415 0.0
2
# step 18
O 4139152.570730478 87241.55865124079 0.0
C -1960650.21771444 -41324.948834798466 0.0
2
# step 18
O 4254449.289785812 89671.68582218657 0.0
C -2015264.4530564407 -42476.06170524652 0.0
2
# step 19
O 4369746.008841146 92101.81299313235 0.0
C -2069878.6883984413 -43627.17457569457 0.0
2
# step 19
O 4485042.72789648 94531.94016407813 0.0
C -2124492.923740442 -44778.28744614262 0.0
2
# step 20
O 4600339.446951814 96962.06733502391 0.0
C -2179107.1590824425 -45929.40031659067 0.0
2
# step 20
O 4715636.166007148 99392.19450596969 0.0
C -2233721.394424443 -47080.51318703872 0.0
2
# step 21
O 4830932.885062482 101822.32167691547 0.0
C -2288335.6297664437 -48231.62605748677 0.0
2
# step 21
O 4946229.604117816 104252.44884786125 0.0
C -2342949.8651084444 -49382.73892793482 0.0
2
# step 22
O 5061526.32317315 106682.57601880703 0.0
C -2397564.100450445 -50533.85179838287 0.0
2
# step 22
O 5176823.0422284845 109112.7031897528 0.0
C -2452178.3357924456 -51684.96466883092 0.0
2
# step 23
O 5292119.761283819 111542.83036069859 0.0
C -2506792.571134446 -52836.07753927897 0.0
2
# step 23
O 5407416.480339153 113972.95753164437 0.0
C -2561406.806476447 -53987.19040972702 0.0
2
# step 24
O 5522713.199394487 116403.08470259015 0.0
C -2616021.0418184474 -55138.303280175074 0.0
2
# step 24
O 5638009.918449821 118833.21187353593 0.0
C -2670635.277160448 -56289.416150623125 0.0
2
# step 25
O 5753306.637505155 121263.3390444817 0.0
C -2725249.5125024486 -57440.529021071176 0.0
2
# step 25
O 5868603.356560489 123693.46621542748 0.0
C -2779863.7478444492 -58591.641891519226 0.0
2
# step 26
O 5983900.075615823 126123.59338637326 0.0
C -2834477.98318645 -59742.75476196728 0.0
2
# step 26
O 6099196.794671157 128553.72055731904 0.0
C -2889092.2185284505 -60893.86763241533 0.0
2
# step 27
O 6214493.5137264915 130983.84772826482 0.0
C -2943706.453870451 -62044.98050286338 0.0
2
# step 27
O 6329790.232781826 133413.97489921073 0.0
C -2998320.6892124517 -63196.09337331143 0.0
2
# step 28
O 6445086.95183716 135844.10207015666 0.0
C -3052934.9245544523 -64347.20624375948 0.0
2
# step 28
O 6560383.670892494 138274.22924110258 0.0
C -3107549.159896453 -65498.31911420753 0.0
2
# step 29
O 6675680.389947828 140704.3564120485 0.0
C -3162163.3952384535 -66649.43198465552 0.0
2
# step 29
O 6790977.109003162 143134.48358299443 0.0
C -3216777.630580454 -67800.5448551035 0.0
2
# step 30
O 6906273.828058496 145564.61075394036 0.0
C -3271391.8659224547 -68951.65772555147 0.0
2
# step 30
O 7021570.54711383 147994.73792488629 0.0
C -3326006.1012644554 -70102.77059599945 0.0
2
# step 31
O 7136867.266169164 150424.8650958322 0.0
C -3380620.336606456 -71253.88346644743 0.0
2
# step 31
O 7252163.985224498 152854.99226677814 0.0
C -3435234.5719484566 -72404.9963368954 0.0
2
# step 32
O 7367460.704279833 155285.11943772406 0.0
C -3489848.807290457 -73556.10920734338 0.0
2
# step 32
O 7482757.423335167 157715.24660867 0.0
C -3544463.042632458 -74707.22207779136 0.0
2
# step 33
O 7598054.142390501 160145.3737796159 0.0
C -3599077.2779744584 -75858.33494823934 0.0
2
# step 33
O 7713350.861445835 162575.50095056184 0.0
C -3653691.513316459 -77009.44781868732 0.0
2
# step 34
O 7828647.580501169 165005.62812150776 0.0
C -3708305.7486584596 -78160.5606891353 0.0
2
# step 34
O 7943944.299556503 167435.7552924537 0.0
C -3762919.9840004602 -79311.67355958327 0.0
2
# step 35
O 8059241.018611837 169865.8824633996 0.0
C -3817534.219342461 -80462.78643003125 0.0
2
# step 35
O 8174537.737667171 172296.00963434554 0.0
C -3872148.4546844615 -81613.89930047923 0.0
2
# step 36
O 8289834.456722505 174726.13680529146 0.0
C -3926762.690026462 -82765.0121709272 0.0
2
# step 36
O 8405131.175777838 177156.2639762374 0.0
C -3981376.9253684627 -83916.12504137518 0.0
2
# step 37
O 8520427.894833162 179586.3911471833 0.0
C -4035991.1607104633 -85067.23791182316 0.0
2
# step 37
O 8635724.613888487 182016.51831812924 0.0
C -4090605.396052464 -86218.35078227114 0.0
2
# step 38
O 8751021.332943812 184446.64548907516 0.0
C -4145219.6313944645 -87369.46365271912 0.0
2
# step 38
O 8866318.051999137 186876.7726600211 0.0
C -4199833.866736464 -88520.5765231671 0.0
2
# step 39
O 8981614.771054462 189306.899830967 0.0
C -4254448.10207846 -89671.68939361507 0.0
2
# step 39
O 9096911.490109786 191737.02700191294 0.0
C -4309062.337420456 -90822.80226406305 0.0
2
# step 40
O 9212208.209165111 194167.15417285886 0.0
C -4363676.572762452 -91973.91513451103 0.0
2
# step 40
O 9327504.928220436 196597.2813438048 0.0
C -4418290.808104448 -93125.02800495901 0.0
2
# step 41
O 9442801.64727576 199027.4085147507 0.0
C -4472905.043446444 -94276.14087540699 0.0
2
# step 41
O 9558098.366331086 201457.53568569664 0.0
C -4527519.27878844 -95427.25374585496 0.0
2
# step 42
O 9673395.08538641 203887.66285664256 0.0
C -4582133.514130436 -96578.36661630294 0.0
2
# step 42
O 9788691.804441735 206317.7900275885 0.0
C -4636747.749472432 -97729.47948675092 0.0
2
# step 43
O 9903988.52349706 208747.91719853441 0.0
C -4691361.984814428 -98880.5923571989 0.0
2
# step 43
O 10019285.242552385 211178.04436948034 0.0
C -4745976.220156424 -100031.70522764687 0.0
2
# step 44
O 10134581.96160771 213608.17154042626 0.0
C -4800590.45549842 -101182.81809809485 0.0
2
# step 44
O 10249878.680663034 216038.2987113722 0.0
C -4855204.690840416 -102333.93096854283 0.0
2
# step 45
O 10365175.39971836 218468.42588231812 0.0
C -4909818.926182412 -103485.04383899081 0.0
2
# step 45
O 10480472.118773684 220898.55305326404 0.0
C -4964433.161524408 -104636.15670943879 0.0
2
# step 46
O 10595768.837829009 223328.68022420997 0.0
C -5019047.3968664035 -105787.26957988676 0.0
2
# step 46
O 10711065.556884333 225758.8073951559 0.0
C -5073661.6322083995 -106938.38245033474 0.0
2
# step 47
O 10826362.275939658 228188.93456610182 0.0
C -5128275.867550395 -108089.49532078272 0.0
2
# step 47
O 10941658.994994983 230619.06173704774 0.0
C -5182890.102892391 -109240.6081912307 0.0
2
# step 48
O 11056955.714050308 233049.18890799367 0.0
C -5237504.338234387 -110391.72106167868 0.0
2
# step 48
O 11172252.433105633 235479.3160789396 0.0
C -5292118.573576383 -111542.83393212665 0.0
2
# step 49
O 11287549.152160957 237909.44324988552 0.0
C -5346732.808918379 -112693.94680257463 0.0
2
# step 49
O 11402845.871216282 240339.57042083144 0.0
C -5401347.044260375 -113845.05967302261 0.0
2
# step 50
O 11518142.590271607 242769.69759177737 0.0
C -5455961.279602371 -114996.17254347059 0.0
2
# step 50
O 11633439.309326932 245199.8247627233 0.0
C -5510575.514944367 -116147.28541391857 0.0
2
# step 51
O 11748736.028382257 247629.95193366922 0.0
C -5565189.750286363 -117298.39828436654 0.0
2
# step 51
O 11864032.747437581 250060.07910461514 0.0
C -5619803.985628359 -118449.51115481452 0.0
2
# step 52
O 11979329.466492906 252490.20627556107 0.0
C -5674418.220970355 -119600.6240252625 0.0
2
# step 52
O 12094626.185548231 254920.333446507 0.0
C -5729032.456312351 -120751.73689571048 0.0
2
# step 53
O 12209922.904603556 257350.46061745292 0.0
C -5783646.691654347 -121902.84976615846 0.0
2
# step 53
O 12325219.62365888 259780.58778839884 0.0
C -5838260.926996343 -123053.96263660643 0.0
2
# step 54
O 12440516.342714205 262210.71495934477 0.0
C -5892875.162338339 -124205.07550705441 0.0
2
# step 54
O 12555813.06176953 264640.8421302904 0.0
C -5947489.397680335 -125356.18837750239 0.0
2
# step 55
O 12671109.780824855 267070.96930123604 0.0
C -6002103.633022331 -126507.30124795037 0.0
2
# step 55
O 12786406.49988018 269501.09647218167 0.0
C -6056717.868364327 -127658.41411839834 0.0
2
# step 56
O 12901703.218935505 271931.2236431273 0.0
C -6111332.103706323 -128809.52698884632 0.0
2
# step 56
O 13016999.93799083 274361.35081407294 0.0
C -6165946.339048319 -129960.6398592943 0.0
2
# step 57
O 13132296.657046154 276791.4779850186 0.0
C -6220560.5743903145 -131111.7527297423 0.0
2
# step 57
O 13247593.376101479 279221.6051559642 0.0
C -6275174.8097323105 -132262.86560019027 0.0
2
# step 58
O 13362890.095156804 281651.73232690984 0.0
C -6329789.045074306 -133413.97847063825 0.0
2
# step 58
O 13478186.814212129 284081.8594978555 0.0
C -6384403.280416302 -134565.09134108623 0.0
2
# step 59
O 13593483.533267453 286511.9866688011 0.0
C -6439017.515758298 -135716.2042115342 0.0
2
# step 59
O 13708780.252322778 288942.11383974674 0.0
C -6493631.751100294 -136867.31708198218 0.0
2
# step 60
O 13824076.971378103 291372.2410106924 0.0
C -6548245.98644229 -138018.42995243016 0.0
2
# step 60
O 13939373.690433428 293802.368181638 0.0
C -6602860.221784286 -139169.54282287814 0.0
2
# step 61
O 14054670.409488752 296232.49535258365 0.0
C -6657474.457126282 -140320.65569332612 0.0
2
# step 61
O 14169967.128544077 298662.6225235293 0.0
C -6712088.692468278 -141471.7685637741 0.0
2
# step 62
O 14285263.847599402 301092.7496944749 0.0
C -6766702.927810274 -142622.88143422207 0.0
2
# step 62
O 14400560.566654727 303522.87686542055 0.0
C -6821317.16315227 -143773.99430467005 0.0
2
# step 63
O 14515857.285710052 305953.0040363662 0.0
C -6875931.398494266 -144925.10717511803 0.0
2
# step 63
O 14631154.004765376 308383.1312073118 0.0
C -6930545.633836262 -146076.220045566 0.0
2
# step 64
O 14746450.723820701 310813.25837825745 0.0
C -6985159.869178258 -147227.33291601398 0.0
2
# step 64
O 14861747.442876026 313243.3855492031 0.0
C -7039774.104520254 -148378.44578646196 0.0
2
# step 65
O 14977044.16193135 315673.5127201487 0.0
C -7094388.33986225 -149529.55865690994 0.0
2
# step 65
O 15092340.880986676 318103.63989109435 0.0
C -7149002.575204246 -150680.67152735792 0.0
2
# step 66
O 15207637.600042 320533.76706204 0.0
C -7203616.810546242 -151831.7843978059 0.0
2
# step 66
O 15322934.319097325 322963.8942329856 0.0
C -7258231.045888238 -152982.89726825387 0.0
2
# step 67
O 15438231.03815265 325394.02140393126 0.0
C -7312845.281230234 -154134.01013870185 0.0
2
# step 67
O 15553527.757207975 327824.1485748769 0.0
C -7367459.51657223 -155285.12300914983 0.0
2
# step 68
O 15668824.4762633 330254.2757458225 0.0
C -7422073.7519142255 -156436.2358795978 0.0
2
# step 68
O 15784121.195318624 332684.40291676816 0.0
C -7476687.9872562215 -157587.34875004578 0.0
2
# step 69
O 15899417.91437395 335114.5300877138 0.0
C -7531302.222598217 -158738.46162049376 0.0
2
# step 69
O 16014714.633429274 337544.6572586594 0.0
C -7585916.457940213 -159889.57449094174 0.0
2
# step 70
O 16130011.352484599 339974.78442960506 0.0
C -7640530.693282209 -161040.68736138972 0.0
2
# step 70
O 16245308.071539924 342404.9116005507 0.0
C -7695144.928624205 -162191.8002318377 0.0
2
# step 71
O 16360604.790595248 344835.0387714963 0.0
C -7749759.163966201 -163342.91310228567 0.0
2
# step 71
O 16475901.509650573 347265.16594244196 0.0
C -7804373.399308197 -164494.02597273365 0.0
2
# step 72
O 16591198.228705898 349695.2931133876 0.0
C -7858987.634650193 -165645.13884318163 0.0
2
# step 72
O 16706494.947761223 352125.42028433323 0.0
C -7913601.869992189 -166796.2517136296 0.0
2
# step 73
O 16821791.666816548 354555.54745527887 0.0
C -7968216.105334185 -167947.3645840776 0.0
2
# step 73
O 16937088.385871872 356985.6746262245 0.0
C -8022830.340676181 -169098.47745452556 0.0
2
# step 74
O 17052385.104927197 359415.80179717013 0.0
C -8077444.576018177 -170249.59032497354 0.0
2
# step 74
O 17167681.823982522 361845.92896811577 0.0
C -8132058.811360173 -171400.70319542152 0.0
2
# step 75
O 17282978.543037847 364276.0561390614 0.0
C -8186673.046702169 -172551.8160658695 0.0
2
# step 75
O 17398275.26209317 366706.18331000704 0.0
C -8241287.282044165 -173702.92893631748 0.0
2
# step 76
O 17513571.981148496 369136.31048095267 0.0
C -8295901.517386161 -174854.04180676545 0.0
2
# step 76
O 17628868.70020382 371566.4376518983 0.0
C -8350515.752728157 -176005.15467721343 0.0
2
# step 77
O 17744165.419259146 373996.56482284394 0.0
C -8405129.988070153 -177156.2675476614 0.0
2
# step 77
O 17859462.13831447 376426.6919937896 0.0
C -8459744.223412149 -178307.3804181094 0.0
2
# step 78
O 17974758.857369795 378856.8191647352 0.0
C -8514358.458754145 -179458.49328855737 0.0
2
# step 78
O 18090055.57642512 381286.94633568084 0.0
C -8568972.69409614 -180609.60615900534 0.0
2
# step 79
O 18205352.295480445 383717.0735066265 0.0
C -8623586.929438137 -181760.71902945332 0.0
2
# step 79
O 18320649.01453577 386147.2006775721 0.0
C -8678201.164780132 -182911.8318999013 0.0
2
# step 80
O 18435945.733591095 388577.32784851774 0.0
C -8732815.400122128 -184062.94477034928 0.0
2
# step 80
O 18551242.45264642 391007.4550194634 0.0
C -8787429.635464124 -185214.05764079725 0.0
2
# step 81
O 18666539.171701744 393437.582190409 0.0
C -8842043.87080612 -186365.17051124523 0.0
2
# step 81
O 18781835.89075707 395867.70936135465 0.0
C -8896658.106148116 -187516.2833816932 0.0
2
# step 82
O 18897132.609812394 398297.8365323003 0.0
C -8951272.341490112 -188667.3962521412 0.0
2
# step 82
O 19012429.32886772 400727.9637032459 0.0
C -9005886.576832108 -189818.50912258917 0.0
2
# step 83
O 19127726.047923043 403158.09087419155 0.0
C -9060500.812174104 -190969.62199303714 0.0
2
# step 83
O 19243022.76697837 405588.2180451372 0.0
C -9115115.0475161 -192120.73486348512 0.0
2
# step 84
O 19358319.486033693 408018.3452160828 0.0
C -9169729.282858096 -193271.8477339331 0.0
2
# step 84
O 19473616.205089018 410448.47238702845 0.0
C -9224343.518200092 -194422.96060438108 0.0
2
# step 85
O 19588912.924144343 412878.5995579741 0.0
C -9278957.753542088 -195574.07347482906 0.0
2
# step 85
O 19704209.643199667 415308.7267289197 0.0
C -9333571.988884084 -196725.18634527703 0.0
2
# step 86
O 19819506.362254992 417738.85389986535 0.0
C -9388186.22422608 -197876.299215725 0.0
2
# step 86
O 19934803.081310317 420168.981070811 0.0
C -9442800.459568076 -199027.412086173 0.0
2
# step 87
O 20050099.80036564 422599.1082417566 0.0
C -9497414.694910072 -200178.52495662097 0.0
2
# step 87
O 20165396.519420967 425029.23541270226 0.0
C -9552028.930252068 -201329.63782706895 0.0
2
# step 88
O 20280693.23847629 427459.3625836479 0.0
C -9606643.165594064 -202480.75069751692 0.0
2
# step 88
O 20395989.957531616 429889.4897545935 0.0
C -9661257.40093606 -203631.8635679649 0.0
2
# step 89
O 20511286.67658694 432319.61692553916 0.0
C -9715871.636278056 -204782.97643841288 0.0
2
# step 89
O 20626583.395642266 434749.7440964848 0.0
C -9770485.871620052 -205934.08930886086 0.0
2
# step 90
O 20741880.11469759 437179.8712674304 0.0
C -9825100.106962048 -207085.20217930884 0.0
2
# step 90
O 20857176.833752915 439609.99843837606 0.0
C -9879714.342304043 -208236.3150497568 0.0
2
# step 91
O 20972473.55280824 442040.1256093217 0.0
C -9934328.57764604 -209387.4279202048 0.0
2
# step 91
O 21087770.271863565 444470.2527802673 0.0
C -9988942.812988035 -210538.54079065277 0.0
2
# step 92
O 21203066.99091889 446900.37995121296 0.0
C -10043557.048330031 -211689.65366110075 0.0
2
# step 92
O 21318363.709974214 449330.5071221586 0.0
C -10098171.283672027 -212840.76653154872 0.0
2
# step 93
O 21433660.42902954 451760.63429310423 0.0
C -10152785.519014023 -213991.8794019967 0.0
2
# step 93
O 21548957.148084864 454190.76146404987 0.0
C -10207399.75435602 -215142.99227244468 0.0
2
# step 94
O 21664253.86714019 456620.8886349955 0.0
C -10262013.989698015 -216294.10514289266 0.0
2
# step 94
O 21779550.586195514 459051.01580594113 0.0
C -10316628.225040011 -217445.21801334064 0.0
2
# step 95
O 21894847.30525084 461481.14297688677 0.0
C -10371242.460382007 -218596.3308837886 0.0
2
# step 95
O 22010144.024306163 463911.2701478324 0.0
C -10425856.695724003 -219747.4437542366 0.0
2
# step 96
O 22125440.743361488 466341.39731877804 0.0
C -10480470.931065999 -220898.55662468457 0.0
2
# step 96
O 22240737.462416813 468771.52448972367 0.0
C -10535085.166407995 -222049.66949513255 0.0
2
# step 97
O 22356034.181472138 471201.6516606693 0.0
C -10589699.40174999 -223200.78236558053 0.0
2
# step 97
O 22471330.900527462 473631.77883161494 0.0
C -10644313.637091987 -224351.8952360285 0.0
2
# step 98
O 22586627.619582787 476061.9060025606 0.0
C -10698927.872433983 -225503.00810647648 0.0
2
# step 98
O 22701924.338638112 478492.0331735062 0.0
C -10753542.107775979 -226654.12097692446 0.0
2
# step 99
O 22817221.057693437 480922.16034445184 0.0
C -10808156.343117975 -227805.23384737244 0.0
2
# step 99
O 22932517.77674876 483352.2875153975 0.0
C -10862770.57845997 -228956.34671782042 0.0
2
# step 100
O 23047814.495804086 485782.4146863431 0.0
C -10917384.813801967 -230107.4595882684 0.0
2
# step 100
O 23163111.21485941 488212.54185728874 0.0
C -10971999.049143963 -231258.57245871637 0.0
2
# step 101
O 23278407.933914736 490642.6690282344 0.0
C -11026613.284485959 -232409.68532916435 0.0
2
# step 101
O 23393704.65297006 493072.79619918 0.0
C -11081227.519827954 -233560.79819961233 0.0
2
# step 102
O 23509001.372025385 495502.92337012565 0.0
C -11135841.75516995 -234711.9110700603 0.0
2
# step 102
O 23624298.09108071 497933.0505410713 0.0
C -11190455.990511946 -235863.02394050828 0.0
2
# step 103
O 23739594.810136035 500363.1777120169 0.0
C -11245070.225853942 -237014.13681095626 0.0
2
# step 103
O 23854891.52919136 502793.30488296255 0.0
C -11299684.461195938 -238165.24968140424 0.0
2
# step 104
O 23970188.248246685 505223.4320539082 0.0
C -11354298.696537934 -239316.36255185222 0.0
2
# step 104
O 24085484.96730201 507653.5592248538 0.0
C -11408912.93187993 -240467.4754223002 0.0
2
# step 105
O 24200781.686357334 510083.68639579945 0.0
C -11463527.167221926 -241618.58829274817 0.0
2
# step 105
O 24316078.40541266 512513.8135667451 0.0
C -11518141.402563922 -242769.70116319615 0.0
2
# step 106
O 24431375.124467984 514943.9407376907 0.0
C -11572755.637905918 -243920.81403364413 0.0
2
# step 106
O 24546671.84352331 517374.06790863635 0.0
C -11627369.873247914 -245071.9269040921 0.0
2
# step 107
O 24661968.562578633 519804.195079582 0.0
C -11681984.10858991 -246223.03977454008 0.0
2
# step 107
O 24777265.28163396 522234.3222505276 0.0
C -11736598.343931906 -247374.15264498806 0.0
2
# step 108
O 24892562.000689283 524664.4494214733 0.0
C -11791212.579273902 -248525.26551543604 0.0
2
# step 108
O 25007858.719744608 527094.5765924195 0.0
C -11845826.814615898 -249676.37838588402 0.0
2
# step 109
O 25123155.438799933 529524.7037633657 0.0
C -11900441.049957894 -250827.491256332 0.0
2
# step 109
O 25238452.157855257 531954.830934312 0.0
C -11955055.28529989 -251978.60412677997 0.0
2
# step 110
O 25353748.876910582 534384.9581052582 0.0
C -12009669.520641886 -253129.71699722795 0.0
2
# step 110
O 25469045.595965907 536815.0852762044 0.0
C -12064283.755983882 -254280.82986767593 0.0
2
# step 111
O 25584342.31502123 539245.2124471506 0.0
C -12118897.991325878 -255431.9427381239 0.0
2
# step 111
O 25699639.034076557 541675.3396180968 0.0
C -12173512.226667874 -256583.05560857189 0.0
2
# step 112
O 25814935.75313188 544105.466789043 0.0
C -12228126.46200987 -257734.16847901986 0.0
2
# step 112
O 25930232.472187206 546535.5939599893 0.0
C -12282740.697351865 -258885.28134946784 0.0
2
# step 113
O 26045529.19124253 548965.7211309355 0.0
C -12337354.932693861 -260036.39421991582 0.0
2
# step 113
O 26160825.910297856 551395.8483018817 0.0
C -12391969.168035857 -261187.5070903638 0.0
2
# step 114
O 26276122.62935318 553825.9754728279 0.0
C -12446583.403377853 -262338.6199608118 0.0
2
# step 114
O 26391419.348408505 556256.1026437741 0.0
C -12501197.63871985 -263489.7328312601 0.0
2
# step 115
O 26506716.06746383 558686.2298147203 0.0
C -12555811.874061845 -264640.84570170834 0.0
2
# step 115
O 26622012.786519155 561116.3569856666 0.0
C -12610426.109403841 -265791.9585721566 0.0
2
# step 116
O 26737309.50557448 563546.4841566128 0.0
C -12665040.344745837 -266943.0714426049 0.0
2
# step 116
O 26852606.224629804 565976.611327559 0.0
C -12719654.580087833 -268094.18431305315 0.0
2
# step 117
O 26967902.94368513 568406.7384985052 0.0
C -12774268.815429829 -269245.2971835014 0.0
2
# step 117
O 27083199.662740454 570836.8656694514 0.0
C -12828883.050771825 -270396.4100539497 0.0
2
# step 118
O 27198496.38179578 573266.9928403976 0.0
C -12883497.286113821 -271547.52292439796 0.0
2
# step 118
O 27313793.100851104 575697.1200113439 0.0
C -12938111.521455817 -272698.6357948462 0.0
2
# step 119
O 27429089.81990643 578127.2471822901 0.0
C -12992725.756797813 -273849.7486652945 0.0
2
# step 119
O 27544386.538961753 580557.3743532363 0.0
C -13047339.992139809 -275000.86153574276 0.0
2
# step 120
O 27659683.258017078 582987.5015241825 0.0
C -13101954.227481805 -276151.97440619103 0.0
2
# step 120
O 27774979.977072403 585417.6286951287 0.0
C -13156568.4628238 -277303.0872766393 0.0
2
# step 121
O 27890276.696127728 587847.7558660749 0.0
C -13211182.698165797 -278454.20014708757 0.0
2
# step 121
O 28005573.415183052 590277.8830370212 0.0
C -13265796.933507793 -279605.31301753584 0.0
2
# step 122
O 28120870.134238377 592708.0102079674 0.0
C -13320411.168849789 -280756.4258879841 0.0
2
# step 122
O 28236166.853293702 595138.1373789136 0.0
C -13375025.404191785 -281907.5387584324 0.0
2
# step 123
O 28351463.572349027 597568.2645498598 0.0
C -13429639.63953378 -283058.65162888065 0.0
2
# step 123
O 28466760.29140435 599998.391720806 0.0
C -13484253.874875776 -284209.7644993289 0.0
2
# step 124
O 28582057.010459676 602428.5188917522 0.0
C -13538868.110217772 -285360.8773697772 0.0
2
# step 124
O 28697353.729515 604858.6460626984 0.0
C -13593482.345559768 -286511.99024022545 0.0
2
# step 125
O 28812650.448570326 607288.7732336447 0.0
C -13648096.580901764 -287663.1031106737 0.0
2
# step 125
O 28927947.16762565 609718.9004045909 0.0
C -13702710.81624376 -288814.215981122 0.0
2
# step 126
O 29043243.886680976 612149.0275755371 0.0
C -13757325.051585756 -289965.32885157026 0.0
2
# step 126
O 29158540.6057363 614579.1547464833 0.0
C -13811939.286927752 -291116.4417220185 0.0
2
# step 127
O 29273837.324791625 617009.2819174295 0.0
C -13866553.522269748 -292267.5545924668 0.0
2
# step 127
O 29389134.04384695 619439.4090883757 0.0
C -13921167.757611744 -293418.66746291507 0.0
2
# step 128
O 29504430.762902275 621869.536259322 0.0
C -13975781.99295374 -294569.78033336333 0.0
2
# step 128
O 29619727.4819576 624299.6634302682 0.0
C -14030396.228295736 -295720.8932038116 0.0
2
# step 129
O 29735024.201012924 626729.7906012144 0.0
C -14085010.463637732 -296872.0060742599 0.0
2
# step 129
O 29850320.92006825 629159.9177721606 0.0
C -14139624.698979728 -298023.11894470814 0.0
2
# step 130
O 29965617.639123574 631590.0449431068 0.0
C -14194238.934321724 -299174.2318151564 0.0
2
# step 130
O 30080914.3581789 634020.172114053 0.0
C -14248853.16966372 -300325.3446856047 0.0
2
# step 131
O 30196211.077234223 636450.2992849993 0.0
C -14303467.405005716 -301476.45755605295 0.0
2
# step 131
O 30311507.79628955 638880.4264559455 0.0
C -14358081.640347712 -302627.5704265012 0.0
2
# step 132
O 30426804.515344873 641310.5536268917 0.0
C -14412695.875689708 -303778.6832969495 0.0
2
# step 132
O 30542101.234400198 643740.6807978379 0.0
C -14467310.111031704 -304929.79616739776 0.0
2
# step 133
O 30657397.953455523 646170.8079687841 0.0
C -14521924.3463737 -306080.909037846 0.0
2
# step 133
O 30772694.672510847 648600.9351397303 0.0
C -14576538.581715696 -307232.0219082943 0.0
2
# step 134
O 30887991.391566172 651031.0623106766 0.0
C -14631152.817057692 -308383.13477874256 0.0
2
# step 134
O 31003288.110621497 653461.1894816228 0.0
C -14685767.052399687 -309534.24764919083 0.0
2
# step 135
O 31118584.82967682 655891.316652569 0.0
C -14740381.287741683 -310685.3605196391 0.0
2
# step 135
O 31233881.548732147 658321.4438235152 0.0
C -14794995.52308368 -311836.47339008737 0.0
2
# step 136
O 31349178.26778747 660751.5709944614 0.0
C -14849609.758425675 -312987.58626053564 0.0
2
# step 136
O 31464474.986842796 663181.6981654076 0.0
C -14904223.993767671 -314138.6991309839 0.0
2
# step 137
O 31579771.70589812 665611.8253363539 0.0
C -14958838.229109667 -315289.8120014322 0.0
2
# step 137
O 31695068.424953446 668041.9525073001 0.0
C -15013452.464451663 -316440.92487188044 0.0
2
# step 138
O 31810365.14400877 670472.0796782463 0.0
C -15068066.69979366 -317592.0377423287 0.0
2
# step 138
O 31925661.863064095 672902.2068491925 0.0
C -15122680.935135655 -318743.150612777 0.0
2
# step 139
O 32040958.58211942 675332.3340201387 0.0
C -15177295.170477651 -319894.26348322525 0.0
2
# step 139
O 32156255.301174745 677762.4611910849 0.0
C -15231909.405819647 -321045.3763536735 0.0
2
# step 140
O 32271552.02023007 680192.5883620312 0.0
C -15286523.641161643 -322196.4892241218 0.0
2
# step 140
O 32386848.739285395 682622.7155329774 0.0
C -15341137.876503639 -323347.60209457006 0.0
2
# step 141
O 32502145.45834072 685052.8427039236 0.0
C -15395752.111845635 -324498.7149650183 0.0
2
# step 141
O 32617442.177396044 687482.9698748698 0.0
C -15450366.34718763 -325649.8278354666 0.0
2
# step 142
O 32732738.89645137 689913.097045816 0.0
C -15504980.582529627 -326800.94070591487 0.0
2
# step 142
O 32848035.615506694 692343.2242167622 0.0
C -15559594.817871623 -327952.05357636313 0.0
2
# step 143
O 32963332.33456202 694773.3513877084 0.0
C -15614209.053213619 -329103.1664468114 0.0
2
# step 143
O 33078629.053617343 697203.4785586547 0.0
C -15668823.288555615 -330254.2793172597 0.0
2
# step 144
O 33193925.772672668 699633.6057296009 0.0
C -15723437.52389761 -331405.39218770794 0.0
2
# step 144
O 33309222.491727993 702063.7329005471 0.0
C -15778051.759239607 -332556.5050581562 0.0
2
# step 145
O 33424519.210783318 704493.8600714933 0.0
C -15832665.994581603 -333707.6179286045 0.0
2
# step 145
O 33539815.929838642 706923.9872424395 0.0
C -15887280.229923598 -334858.73079905275 0.0
2
# step 146
O 33655112.64889397 709354.1144133857 0.0
C -15941894.465265594 -336009.843669501 0.0
2
# step 146
O 33770409.36794929 711784.241584332 0.0
C -15996508.70060759 -337160.9565399493 0.0
2
# step 147
O 33885706.08700462 714214.3687552782 0.0
C -16051122.935949586 -338312.06941039755 0.0
2
# step 147
O 34001002.80605994 716644.4959262244 0.0
C -16105737.171291582 -339463.1822808458 0.0
2
# step 148
O 34116299.52511527 719074.6230971706 0.0
C -16160351.406633578 -340614.2951512941 0.0
2
# step 148
O 34231596.24417059 721504.7502681168 0.0
C -16214965.641975574 -341765.40802174236 0.0
2
# step 149
O 34346892.963225916 723934.877439063 0.0
C -16269579.87731757 -342916.52089219063 0.0
2
# step 149
O 34462189.68228124 726365.0046100093 0.0
C -16324194.112659566 -344067.6337626389 0.0
2
# step 150
O 34577486.401336566 728795.1317809555 0.0
C -16378808.348001562 -345218.74663308717 0.0
2
# step 150