Lammps init file written by MDPython after 99999

2 atoms
2 atom types
1 bonds
1 bond types

-10.0 10.0 xlo xhi
-10.0 10.0 ylo yhi
-10.0 10.0 zlo zhi

Masses

1 0.9
2 1.9

Atoms # full style: index type group charge x y z
1 1 1 0 1152955661.2370174 24301028.68993086 0.0
2 2 1 0 -546136891.166385 -11511013.589951698 0.0

Velocities # vx vy vz

1 230593.43811066495 4860.254341891662 0.0
2 -109228.47068399918 -2302.2257408960504 0.0

Bonds # type i j

1 1 1 2

