Lammps init file written by MDPython after 99999

2 atoms
2 atom types
1 bonds
1 bond types

-10.0 10.0 xlo xhi
-10.0 10.0 ylo yhi
-10.0 10.0 zlo zhi

Masses

1 0.9
2 1.9

Atoms # full style: index type group charge x y z
1 1 1 0 -8.799371580557927e-34 -236.26989770671707 0.0
2 2 1 0 1.0 111.91731996634002 0.0

Velocities # vx vy vz

1 -1.0492012220486402e-38 -0.0028153011691214275 0.0
2 4.9699005254936504e-39 0.0013335637116891903 0.0

Bonds # type i j

1 1 1 2

