# init lammps data file for morse

2 atoms
2 atom types
1 bonds
1 bond types

-10 10 xlo xhi
-10 10 ylo yhi
-10 10 zlo zhi

Masses

1  0.9 
2  1.9

Atoms # full index type group charge x y z nx ny nz

1 1 1 0    0     0   0 
2 2 1 0  1.2   1.2   0

Velocities

1 0.0  -0.1 0
2 0.0   0.1 0

Bonds

1 1 1 2
